ITEM: TIMESTEP
103000
ITEM: NUMBER OF ATOMS
24
ITEM: BOX BOUNDS pp pp pp
0 6.25
0 6.25
0 6.25
ITEM: ATOMS type id x y z vx vy vz 
1 1 1.91468 3.02071 0.528818 0.00105876 0.000389945 0.000540445 
2 2 1.29395 3.5652 6.21471 0.0116399 0.0238521 0.0115804 
2 3 1.39919 2.29819 0.989518 -0.0190113 0.0234721 0.0142206 
1 4 3.626 4.14767 2.28901 -0.00775121 -0.00332156 0.00045625 
2 5 4.16502 3.38633 2.64931 -0.00916183 -0.00898758 -0.0093385 
2 6 3.00361 3.81053 1.58263 -0.00415819 0.00792349 -0.00812868 
1 7 2.42769 6.19665 3.54307 0.00516741 0.00576708 -0.00187862 
2 8 3.06452 0.52461 4.05338 0.0147389 -0.00707458 0.000731629 
2 9 2.90869 5.38709 3.20654 -0.00964617 -0.00368993 -0.00034467 
1 10 3.80235 1.58899 5.41742 0.000160311 0.000400954 -0.00271396 
2 11 4.36344 2.15982 4.81798 0.0317508 -0.00780526 0.0190895 
2 12 3.13529 2.16145 5.8942 0.00501066 0.0133524 -0.0114753 
1 13 4.80923 5.75237 0.272529 -0.0041924 0.00248113 5.02226e-05 
2 14 4.24226 0.143661 6.00552 -0.00864071 0.00125601 0.00341038 
2 15 4.22911 5.2088 0.879155 0.00156727 0.00697033 0.00957028 
1 16 0.417374 1.05515 1.90862 0.00143456 -0.00280331 -0.00114098 
2 17 6.07448 0.524278 1.30311 0.0218267 -0.00281436 -0.0211203 
2 18 0.957417 0.433166 2.47562 -0.0062517 -0.00294501 0.00603581 
1 19 5.4205 2.90285 3.66719 0.00245983 0.000292166 0.00455708 
2 20 5.97449 2.21136 3.20358 0.00989121 0.00880165 0.000767886 
2 21 6.01398 3.63229 4.00734 -0.00868655 0.0196349 -0.0174331 
1 22 0.616258 4.77853 5.1262 -0.000836257 -0.00691637 0.000166677 
2 23 1.20745 5.48874 4.74398 0.00678782 -0.0119932 0.00252133 
2 24 6.16478 5.20174 5.69963 0.00200832 -0.001067 -0.00067658 
ITEM: TIMESTEP
103010
ITEM: NUMBER OF ATOMS
24
ITEM: BOX BOUNDS pp pp pp
0 6.25
0 6.25
0 6.25
ITEM: ATOMS type id x y z vx vy vz 
1 1 1.91806 3.02462 0.537276 -7.69697e-05 0.0011057 0.00138714 
2 2 1.45901 3.74756 6.2709 0.0132496 0.0052182 -0.00472884 
2 3 1.24646 2.53311 1.09168 -0.00995092 0.0150081 0.00180022 
1 4 3.53456 4.12772 2.27293 -0.00974017 -0.000996474 -0.0031475 
2 5 4.14475 3.4532 2.68848 0.000399266 0.0202446 0.0163603 
2 6 2.95012 3.67734 1.59796 -0.00427778 -0.0296536 0.0113008 
1 7 2.47109 6.24789 3.53127 0.00327942 0.00414788 -0.000659915 
2 8 3.15164 0.497842 4.06691 0.000631192 0.00383505 0.00299396 
2 9 2.8912 5.42956 3.13904 0.00904231 0.0121781 -0.0112 
1 10 3.79734 1.60358 5.37577 -0.000732717 0.00212546 -0.0048415 
2 11 4.59475 2.08325 5.00964 0.00926688 -0.00268902 0.0105133 
2 12 3.18476 2.26147 5.81388 0.00195439 0.00387369 -0.00370498 
1 13 4.78059 5.76109 0.282028 -0.00172197 -0.00023565 0.00205876 
2 14 4.23941 0.261148 6.15184 0.00892234 0.0164616 0.0198433 
2 15 4.25918 5.30656 1.0042 0.00365635 0.00898675 0.0117617 
1 16 0.429525 1.03259 1.89422 0.00105961 -0.00148984 -0.00161911 
2 17 6.25565 0.466682 1.18706 0.0111244 -0.0094255 -0.0013067 
2 18 0.974104 0.454438 2.50181 0.011001 0.00848514 -0.00106207 
1 19 5.45756 2.89291 3.71349 0.00444433 -0.0018541 0.00389442 
2 20 6.05988 2.32996 3.14754 0.00640523 0.0119555 -0.00776534 
2 21 5.9286 3.73936 3.96178 -0.00269868 -0.000188289 0.0117462 
1 22 0.612162 4.70999 5.13274 0.000137718 -0.00610904 0.000994942 
2 23 1.24029 5.35184 4.69288 -0.000862432 -0.0135273 -0.0112443 
2 24 6.14482 5.21885 5.60866 -0.0046787 0.00171199 -0.0146299 
ITEM: TIMESTEP
103020
ITEM: NUMBER OF ATOMS
24
ITEM: BOX BOUNDS pp pp pp
0 6.25
0 6.25
0 6.25
ITEM: ATOMS type id x y z vx vy vz 
1 1 1.91315 3.03918 0.550044 -0.00152697 0.000879521 0.000320957 
2 2 1.48509 3.66826 6.15118 -0.00622131 -0.0151365 -0.0121246 
2 3 1.20457 2.51921 1.02707 0.00363719 -0.0174163 -0.0120113 
1 4 3.45039 4.1245 2.24681 -0.00613918 0.000796462 -0.000791446 
2 5 4.10151 3.67898 2.86127 -0.00794544 0.0155087 0.0118607 
2 6 2.93593 3.42899 1.74522 -0.00126796 -0.0112123 0.0107813 
1 7 2.49116 6.28034 3.52679 0.000721665 0.0028145 -0.000399492 
2 8 3.09109 0.582952 4.10534 -0.0104955 0.00957257 0.0047806 
2 9 3.03607 5.60285 3.03275 0.0145924 0.0190311 -0.00737087 
1 10 3.78894 1.62531 5.33295 -0.000926339 0.00222064 -0.00345869 
2 11 4.54583 2.15077 4.94435 -0.019044 0.0138952 -0.022821 
2 12 3.16619 2.24309 5.81308 -0.00451462 -0.00586593 0.00229066 
1 13 4.77698 5.75647 0.315634 0.00123517 -0.000531559 0.0046138 
2 14 4.34464 0.364064 6.28703 0.00659118 0.00207806 0.0043116 
2 15 4.24151 5.33577 1.04795 -0.00937022 -0.00423903 -0.00530556 
1 16 0.442036 1.02591 1.88035 0.0017731 0.000119745 -0.0011502 
2 17 6.29003 0.354262 1.25804 -0.00346259 -0.0115702 0.0148717 
2 18 1.14402 0.584303 2.4391 0.0182037 0.0144337 -0.0104606 
1 19 5.50131 2.87751 3.7384 0.00431278 -0.000537781 0.00137471 
2 20 6.09836 2.40101 3.09304 -0.0001322 -0.00118246 -0.00225833 
2 21 6.02416 3.58185 4.21854 0.0194731 -0.0330873 0.0324963 
1 22 0.618073 4.66276 5.13836 0.000878532 -0.00354398 -0.000375304 
2 23 1.21059 5.24685 4.58359 -0.00366967 -0.00536017 -0.00715421 
2 24 6.10409 5.20268 5.49166 -0.00159224 -0.00464713 -0.00401843 
ITEM: TIMESTEP
103030
ITEM: NUMBER OF ATOMS
24
ITEM: BOX BOUNDS pp pp pp
0 6.25
0 6.25
0 6.25
ITEM: ATOMS type id x y z vx vy vz 
1 1 1.88343 3.02189 0.535152 -0.00385339 -0.00471696 -0.00314589 
2 2 1.37093 3.57604 6.12921 -0.0156995 -0.000622159 0.00959868 
2 3 1.29211 2.3007 0.896034 0.00840018 -0.0190589 -0.0116593 
1 4 3.42109 4.15174 2.26632 -8.49087e-05 0.00433746 0.00416711 
2 5 4.03666 3.64818 2.87253 -0.00351108 -0.0179241 -0.010904 
2 6 2.87094 3.50507 1.73797 -0.0102032 0.0239435 -0.00924329 
1 7 2.48542 6.31641 3.52174 -0.00180879 0.00471469 -0.000594351 
2 8 3.00448 0.635016 4.15991 -0.0048423 4.02817e-05 0.00603585 
2 9 3.11014 5.70483 3.03625 -0.00127582 -0.0016753 0.00817086 
1 10 3.77663 1.65095 5.3047 -0.00199776 0.00279613 -0.00254015 
2 11 4.27621 2.24376 4.67303 -0.0253459 0.00193674 -0.0218887 
2 12 3.12429 2.19772 5.82957 -0.00207471 -0.000896097 0.00121416 
1 13 4.80097 5.75228 0.371818 0.00297535 -0.000265196 0.00634521 
2 14 4.35032 0.306132 6.23356 -0.00134242 -0.0123316 -0.0135852 
2 15 4.13772 5.21982 0.897723 -0.00538363 -0.0165345 -0.0206602 
1 16 0.469709 1.03389 1.86811 0.00372284 0.00126867 -0.00133557 
2 17 6.19299 0.285638 1.46476 -0.015225 0.00135248 0.0232758 
2 18 1.25849 0.660776 2.35659 0.00338946 -0.00153343 -0.002941 
1 19 5.54475 2.87608 3.74827 0.00375428 -0.0010502 0.000308818 
2 20 6.0391 2.31915 3.08085 -0.0091542 -0.0108875 -0.00105441 
2 21 6.18653 3.22714 4.43009 0.0108904 -0.0232712 0.00512659 
1 22 0.629838 4.63427 5.12616 0.00166834 -0.00205012 -0.00146533 
2 23 1.17089 5.24826 4.55146 -0.00426043 0.00377839 -0.000818566 
2 24 6.1288 5.14496 5.54465 0.00618114 -0.00622566 0.0117173 
