ITEM: TIMESTEP
103000
ITEM: NUMBER OF ATOMS
24
ITEM: BOX BOUNDS pp pp pp
0 6.25
0 6.25
0 6.25
ITEM: ATOMS type id x y z 
1 1 1.91468 3.02071 0.528818 
2 2 1.29395 3.5652 6.21471 
2 3 1.39919 2.29819 0.989518 
1 4 3.626 4.14767 2.28901 
2 5 4.16502 3.38633 2.64931 
2 6 3.00361 3.81053 1.58263 
1 7 2.42769 6.19665 3.54307 
2 8 3.06452 0.52461 4.05338 
2 9 2.90869 5.38709 3.20654 
1 10 3.80235 1.58899 5.41742 
2 11 4.36344 2.15982 4.81798 
2 12 3.13529 2.16145 5.8942 
1 13 4.80923 5.75237 0.272529 
2 14 4.24226 0.143661 6.00552 
2 15 4.22911 5.2088 0.879155 
1 16 0.417374 1.05515 1.90862 
2 17 6.07448 0.524278 1.30311 
2 18 0.957417 0.433166 2.47562 
1 19 5.4205 2.90285 3.66719 
2 20 5.97449 2.21136 3.20358 
2 21 6.01398 3.63229 4.00734 
1 22 0.616258 4.77853 5.1262 
2 23 1.20745 5.48874 4.74398 
2 24 6.16478 5.20174 5.69963 
ITEM: TIMESTEP
103010
ITEM: NUMBER OF ATOMS
24
ITEM: BOX BOUNDS pp pp pp
0 6.25
0 6.25
0 6.25
ITEM: ATOMS type id x y z 
1 1 1.91806 3.02462 0.537276 
2 2 1.45901 3.74756 6.2709 
2 3 1.24646 2.53311 1.09168 
1 4 3.53456 4.12772 2.27293 
2 5 4.14475 3.4532 2.68848 
2 6 2.95012 3.67734 1.59796 
1 7 2.47109 6.24789 3.53127 
2 8 3.15164 0.497842 4.06691 
2 9 2.8912 5.42956 3.13904 
1 10 3.79734 1.60358 5.37577 
2 11 4.59475 2.08325 5.00964 
2 12 3.18476 2.26147 5.81388 
1 13 4.78059 5.76109 0.282028 
2 14 4.23941 0.261148 6.15184 
2 15 4.25918 5.30656 1.0042 
1 16 0.429525 1.03259 1.89422 
2 17 6.25565 0.466682 1.18706 
2 18 0.974104 0.454438 2.50181 
1 19 5.45756 2.89291 3.71349 
2 20 6.05988 2.32996 3.14754 
2 21 5.9286 3.73936 3.96178 
1 22 0.612162 4.70999 5.13274 
2 23 1.24029 5.35184 4.69288 
2 24 6.14482 5.21885 5.60866 
ITEM: TIMESTEP
103020
ITEM: NUMBER OF ATOMS
24
ITEM: BOX BOUNDS pp pp pp
0 6.25
0 6.25
0 6.25
ITEM: ATOMS type id x y z 
1 1 1.91315 3.03918 0.550044 
2 2 1.48509 3.66826 6.15118 
2 3 1.20457 2.51921 1.02707 
1 4 3.45039 4.1245 2.24681 
2 5 4.10151 3.67898 2.86127 
2 6 2.93593 3.42899 1.74522 
1 7 2.49116 6.28034 3.52679 
2 8 3.09109 0.582952 4.10534 
2 9 3.03607 5.60285 3.03275 
1 10 3.78894 1.62531 5.33295 
2 11 4.54583 2.15077 4.94435 
2 12 3.16619 2.24309 5.81308 
1 13 4.77698 5.75647 0.315634 
2 14 4.34464 0.364064 6.28703 
2 15 4.24151 5.33577 1.04795 
1 16 0.442036 1.02591 1.88035 
2 17 6.29003 0.354262 1.25804 
2 18 1.14402 0.584303 2.4391 
1 19 5.50131 2.87751 3.7384 
2 20 6.09836 2.40101 3.09304 
2 21 6.02416 3.58185 4.21854 
1 22 0.618073 4.66276 5.13836 
2 23 1.21059 5.24685 4.58359 
2 24 6.10409 5.20268 5.49166 
ITEM: TIMESTEP
103030
ITEM: NUMBER OF ATOMS
24
ITEM: BOX BOUNDS pp pp pp
0 6.25
0 6.25
0 6.25
ITEM: ATOMS type id x y z 
1 1 1.88343 3.02189 0.535152 
2 2 1.37093 3.57604 6.12921 
2 3 1.29211 2.3007 0.896034 
1 4 3.42109 4.15174 2.26632 
2 5 4.03666 3.64818 2.87253 
2 6 2.87094 3.50507 1.73797 
1 7 2.48542 6.31641 3.52174 
2 8 3.00448 0.635016 4.15991 
2 9 3.11014 5.70483 3.03625 
1 10 3.77663 1.65095 5.3047 
2 11 4.27621 2.24376 4.67303 
2 12 3.12429 2.19772 5.82957 
1 13 4.80097 5.75228 0.371818 
2 14 4.35032 0.306132 6.23356 
2 15 4.13772 5.21982 0.897723 
1 16 0.469709 1.03389 1.86811 
2 17 6.19299 0.285638 1.46476 
2 18 1.25849 0.660776 2.35659 
1 19 5.54475 2.87608 3.74827 
2 20 6.0391 2.31915 3.08085 
2 21 6.18653 3.22714 4.43009 
1 22 0.629838 4.63427 5.12616 
2 23 1.17089 5.24826 4.55146 
2 24 6.1288 5.14496 5.54465 
